<?xml version="1.0"?>
<VTKFile type="UnstructuredGrid" version="1.0" byte_order="LittleEndian" header_type="UInt64">
  <UnstructuredGrid>
    <Piece NumberOfPoints="64" NumberOfCells="4">
      <PointData>
        <DataArray type="Float32" Name="data" format="ascii">
               1.158484e+00
               5.666287e-01
               3.808694e-01
               5.987242e-01
               1.695623e+00
               8.044756e-01
               3.695262e-01
               4.606992e-01
               9.995254e-01
               4.973119e-01
               4.083658e-01
               7.228460e-01
               1.144564e+00
               5.662608e-01
               3.808697e-01
               5.987243e-01
               1.000000e+00
               2.084408e+00
               2.209044e+00
               1.158484e+00
               1.786706e+00
               1.730089e+00
               2.649808e+00
               1.695623e+00
               2.705549e+00
               2.717802e+00
               1.972837e+00
               9.995254e-01
               2.482578e+00
               2.572356e+00
               2.058997e+00
               1.144564e+00
               1.158484e+00
               2.209044e+00
               2.084408e+00
               1.000000e+00
               1.004755e+00
               2.039706e+00
               2.437534e+00
               1.786706e+00
               1.686516e+00
               2.609602e+00
               2.611151e+00
               2.705549e+00
               1.144564e+00
               2.058997e+00
               2.572356e+00
               2.482578e+00
               5.987242e-01
               3.808694e-01
               5.666287e-01
               1.158484e+00
               7.228460e-01
               4.083655e-01
               4.974321e-01
               1.004755e+00
               4.606992e-01
               3.695262e-01
               8.041668e-01
               1.686516e+00
               5.987243e-01
               3.808697e-01
               5.662608e-01
               1.144564e+00
        </DataArray>
      </PointData>
      <CellData>
      </CellData>
      <Points>
        <DataArray type="Float32" Name="Points" NumberOfComponents="3" format="ascii">
               2.000000e+00    -9.816844e-01     0.000000e+00
               2.552786e+00    -9.985215e-01     0.000000e+00
               3.447214e+00    -9.999931e-01     0.000000e+00
               4.000000e+00    -9.999999e-01     0.000000e+00
               1.802744e+00    -4.288980e-01     0.000000e+00
               2.355530e+00    -4.457351e-01     0.000000e+00
               3.249957e+00    -4.472067e-01     0.000000e+00
               3.802744e+00    -4.472135e-01     0.000000e+00
               2.197256e+00     4.655292e-01     0.000000e+00
               2.750043e+00     4.486921e-01     0.000000e+00
               3.644470e+00     4.472205e-01     0.000000e+00
               4.197256e+00     4.472137e-01     0.000000e+00
               2.000000e+00     1.018316e+00     0.000000e+00
               2.552786e+00     1.001479e+00     0.000000e+00
               3.447214e+00     1.000007e+00     0.000000e+00
               4.000000e+00     1.000000e+00     0.000000e+00
              -2.449294e-17     0.000000e+00     0.000000e+00
               5.527864e-01    -2.632987e-01     0.000000e+00
               1.447214e+00    -8.768592e-01     0.000000e+00
               2.000000e+00    -9.816844e-01     0.000000e+00
              -1.972562e-01     5.527864e-01     0.000000e+00
               3.555302e-01     2.894877e-01     0.000000e+00
               1.249957e+00    -3.240728e-01     0.000000e+00
               1.802744e+00    -4.288980e-01     0.000000e+00
               1.972562e-01     1.447214e+00     0.000000e+00
               7.500426e-01     1.183915e+00     0.000000e+00
               1.644470e+00     5.703544e-01     0.000000e+00
               2.197256e+00     4.655292e-01     0.000000e+00
               1.133108e-16     2.000000e+00     0.000000e+00
               5.527864e-01     1.736701e+00     0.000000e+00
               1.447214e+00     1.123141e+00     0.000000e+00
               2.000000e+00     1.018316e+00     0.000000e+00
              -2.000000e+00    -9.816844e-01     0.000000e+00
              -1.447214e+00    -8.768592e-01     0.000000e+00
              -5.527864e-01    -2.632987e-01     0.000000e+00
              -1.355152e-16     0.000000e+00     0.000000e+00
              -2.197256e+00    -4.288980e-01     0.000000e+00
              -1.644470e+00    -3.240728e-01     0.000000e+00
              -7.500426e-01     2.894877e-01     0.000000e+00
              -1.972562e-01     5.527864e-01     0.000000e+00
              -1.802744e+00     4.655292e-01     0.000000e+00
              -1.249957e+00     5.703544e-01     0.000000e+00
              -3.555302e-01     1.183915e+00     0.000000e+00
               1.972562e-01     1.447214e+00     0.000000e+00
              -2.000000e+00     1.018316e+00     0.000000e+00
              -1.447214e+00     1.123141e+00     0.000000e+00
              -5.527864e-01     1.736701e+00     0.000000e+00
               2.288475e-18     2.000000e+00     0.000000e+00
              -4.000000e+00    -9.999999e-01     0.000000e+00
              -3.447214e+00    -9.999931e-01     0.000000e+00
              -2.552786e+00    -9.985215e-01     0.000000e+00
              -2.000000e+00    -9.816844e-01     0.000000e+00
              -4.197256e+00    -4.472135e-01     0.000000e+00
              -3.644470e+00    -4.472067e-01     0.000000e+00
              -2.750043e+00    -4.457351e-01     0.000000e+00
              -2.197256e+00    -4.288980e-01     0.000000e+00
              -3.802744e+00     4.472137e-01     0.000000e+00
              -3.249957e+00     4.472205e-01     0.000000e+00
              -2.355530e+00     4.486921e-01     0.000000e+00
              -1.802744e+00     4.655292e-01     0.000000e+00
              -4.000000e+00     1.000000e+00     0.000000e+00
              -3.447214e+00     1.000007e+00     0.000000e+00
              -2.552786e+00     1.001479e+00     0.000000e+00
              -2.000000e+00     1.018316e+00     0.000000e+00
        </DataArray>
      </Points>
      <Cells>
        <DataArray type="Int64" Name="connectivity" format="ascii">
           0 3 15 12
           1 2
           7 11
           13 14
           4 8
           5 6
           9 10
           16 19 31 28
           17 18
           23 27
           29 30
           20 24
           21 22
           25 26
           32 35 47 44
           33 34
           39 43
           45 46
           36 40
           37 38
           41 42
           48 51 63 60
           49 50
           55 59
           61 62
           52 56
           53 54
           57 58
        </DataArray>
        <DataArray type="Int64" Name="offsets" format="ascii">
           16
           32
           48
           64
        </DataArray>
        <DataArray type="UInt8" Name="types" format="ascii">
           70
           70
           70
           70
        </DataArray>
      </Cells>
    </Piece>
  </UnstructuredGrid>
</VTKFile>
