<?xml version="1.0"?>
<VTKFile type="UnstructuredGrid" version="1.0" byte_order="LittleEndian" header_type="UInt64">
  <UnstructuredGrid>
    <Piece NumberOfPoints="256" NumberOfCells="4">
      <PointData>
        <DataArray type="Float32" Name="element_number" format="ascii">
               0.000000e+00
               0.000000e+00
               0.000000e+00
               0.000000e+00
               0.000000e+00
               0.000000e+00
               0.000000e+00
               0.000000e+00
               0.000000e+00
               0.000000e+00
               0.000000e+00
               0.000000e+00
               0.000000e+00
               0.000000e+00
               0.000000e+00
               0.000000e+00
               0.000000e+00
               0.000000e+00
               0.000000e+00
               0.000000e+00
               0.000000e+00
               0.000000e+00
               0.000000e+00
               0.000000e+00
               0.000000e+00
               0.000000e+00
               0.000000e+00
               0.000000e+00
               0.000000e+00
               0.000000e+00
               0.000000e+00
               0.000000e+00
               0.000000e+00
               0.000000e+00
               0.000000e+00
               0.000000e+00
               0.000000e+00
               0.000000e+00
               0.000000e+00
               0.000000e+00
               0.000000e+00
               0.000000e+00
               0.000000e+00
               0.000000e+00
               0.000000e+00
               0.000000e+00
               0.000000e+00
               0.000000e+00
               0.000000e+00
               0.000000e+00
               0.000000e+00
               0.000000e+00
               0.000000e+00
               0.000000e+00
               0.000000e+00
               0.000000e+00
               0.000000e+00
               0.000000e+00
               0.000000e+00
               0.000000e+00
               0.000000e+00
               0.000000e+00
               0.000000e+00
               0.000000e+00
               1.000000e+00
               1.000000e+00
               1.000000e+00
               1.000000e+00
               1.000000e+00
               1.000000e+00
               1.000000e+00
               1.000000e+00
               1.000000e+00
               1.000000e+00
               1.000000e+00
               1.000000e+00
               1.000000e+00
               1.000000e+00
               1.000000e+00
               1.000000e+00
               1.000000e+00
               1.000000e+00
               1.000000e+00
               1.000000e+00
               1.000000e+00
               1.000000e+00
               1.000000e+00
               1.000000e+00
               1.000000e+00
               1.000000e+00
               1.000000e+00
               1.000000e+00
               1.000000e+00
               1.000000e+00
               1.000000e+00
               1.000000e+00
               1.000000e+00
               1.000000e+00
               1.000000e+00
               1.000000e+00
               1.000000e+00
               1.000000e+00
               1.000000e+00
               1.000000e+00
               1.000000e+00
               1.000000e+00
               1.000000e+00
               1.000000e+00
               1.000000e+00
               1.000000e+00
               1.000000e+00
               1.000000e+00
               1.000000e+00
               1.000000e+00
               1.000000e+00
               1.000000e+00
               1.000000e+00
               1.000000e+00
               1.000000e+00
               1.000000e+00
               1.000000e+00
               1.000000e+00
               1.000000e+00
               1.000000e+00
               1.000000e+00
               1.000000e+00
               1.000000e+00
               1.000000e+00
               2.000000e+00
               2.000000e+00
               2.000000e+00
               2.000000e+00
               2.000000e+00
               2.000000e+00
               2.000000e+00
               2.000000e+00
               2.000000e+00
               2.000000e+00
               2.000000e+00
               2.000000e+00
               2.000000e+00
               2.000000e+00
               2.000000e+00
               2.000000e+00
               2.000000e+00
               2.000000e+00
               2.000000e+00
               2.000000e+00
               2.000000e+00
               2.000000e+00
               2.000000e+00
               2.000000e+00
               2.000000e+00
               2.000000e+00
               2.000000e+00
               2.000000e+00
               2.000000e+00
               2.000000e+00
               2.000000e+00
               2.000000e+00
               2.000000e+00
               2.000000e+00
               2.000000e+00
               2.000000e+00
               2.000000e+00
               2.000000e+00
               2.000000e+00
               2.000000e+00
               2.000000e+00
               2.000000e+00
               2.000000e+00
               2.000000e+00
               2.000000e+00
               2.000000e+00
               2.000000e+00
               2.000000e+00
               2.000000e+00
               2.000000e+00
               2.000000e+00
               2.000000e+00
               2.000000e+00
               2.000000e+00
               2.000000e+00
               2.000000e+00
               2.000000e+00
               2.000000e+00
               2.000000e+00
               2.000000e+00
               2.000000e+00
               2.000000e+00
               2.000000e+00
               2.000000e+00
               3.000000e+00
               3.000000e+00
               3.000000e+00
               3.000000e+00
               3.000000e+00
               3.000000e+00
               3.000000e+00
               3.000000e+00
               3.000000e+00
               3.000000e+00
               3.000000e+00
               3.000000e+00
               3.000000e+00
               3.000000e+00
               3.000000e+00
               3.000000e+00
               3.000000e+00
               3.000000e+00
               3.000000e+00
               3.000000e+00
               3.000000e+00
               3.000000e+00
               3.000000e+00
               3.000000e+00
               3.000000e+00
               3.000000e+00
               3.000000e+00
               3.000000e+00
               3.000000e+00
               3.000000e+00
               3.000000e+00
               3.000000e+00
               3.000000e+00
               3.000000e+00
               3.000000e+00
               3.000000e+00
               3.000000e+00
               3.000000e+00
               3.000000e+00
               3.000000e+00
               3.000000e+00
               3.000000e+00
               3.000000e+00
               3.000000e+00
               3.000000e+00
               3.000000e+00
               3.000000e+00
               3.000000e+00
               3.000000e+00
               3.000000e+00
               3.000000e+00
               3.000000e+00
               3.000000e+00
               3.000000e+00
               3.000000e+00
               3.000000e+00
               3.000000e+00
               3.000000e+00
               3.000000e+00
               3.000000e+00
               3.000000e+00
               3.000000e+00
               3.000000e+00
               3.000000e+00
        </DataArray>
        <DataArray type="Float32" Name="data" format="ascii">
               1.158484e+00
               9.737415e-01
               6.729938e-01
               4.486898e-01
               3.686548e-01
               4.090054e-01
               5.182799e-01
               5.987242e-01
               1.335138e+00
               1.124424e+00
               7.688813e-01
               4.908265e-01
               3.752616e-01
               3.885305e-01
               4.723047e-01
               5.377741e-01
               1.644810e+00
               1.398503e+00
               9.532783e-01
               5.775475e-01
               3.987388e-01
               3.710998e-01
               4.210039e-01
               4.671207e-01
               1.585728e+00
               1.340882e+00
               9.068205e-01
               5.512518e-01
               3.897624e-01
               3.751851e-01
               4.366968e-01
               4.896790e-01
               1.140313e+00
               9.524988e-01
               6.511427e-01
               4.350455e-01
               3.678820e-01
               4.250253e-01
               5.543637e-01
               6.474553e-01
               9.826751e-01
               8.244435e-01
               5.765330e-01
               4.069552e-01
               3.711770e-01
               4.568977e-01
               6.158123e-01
               7.261779e-01
               1.072931e+00
               9.036222e-01
               6.288610e-01
               4.290821e-01
               3.679402e-01
               4.264821e-01
               5.551600e-01
               6.473360e-01
               1.144564e+00
               9.671439e-01
               6.719408e-01
               4.486351e-01
               3.686544e-01
               4.090056e-01
               5.182800e-01
               5.987243e-01
               1.000000e+00
               1.198552e+00
               1.755178e+00
               2.549674e+00
               2.596399e+00
               1.918483e+00
               1.372859e+00
               1.158484e+00
               1.183826e+00
               1.140990e+00
               1.568919e+00
               2.394943e+00
               2.687191e+00
               2.133005e+00
               1.572079e+00
               1.335138e+00
               1.601214e+00
               1.479031e+00
               1.473868e+00
               2.118199e+00
               2.707921e+00
               2.434260e+00
               1.904882e+00
               1.644810e+00
               2.062372e+00
               2.012364e+00
               1.983961e+00
               2.319700e+00
               2.716776e+00
               2.391832e+00
               1.847540e+00
               1.585728e+00
               2.559073e+00
               2.578547e+00
               2.617610e+00
               2.709502e+00
               2.546596e+00
               1.905363e+00
               1.358702e+00
               1.140313e+00
               2.715671e+00
               2.711950e+00
               2.704990e+00
               2.654629e+00
               2.314663e+00
               1.660232e+00
               1.170232e+00
               9.826751e-01
               2.596278e+00
               2.593712e+00
               2.614353e+00
               2.601547e+00
               2.335063e+00
               1.752096e+00
               1.268257e+00
               1.072931e+00
               2.482578e+00
               2.490825e+00
               2.546044e+00
               2.576795e+00
               2.361659e+00
               1.824565e+00
               1.345347e+00
               1.144564e+00
               1.158484e+00
               1.372859e+00
               1.918483e+00
               2.596399e+00
               2.549674e+00
               1.755178e+00
               1.198552e+00
               1.000000e+00
               1.084132e+00
               1.290749e+00
               1.832051e+00
               2.549924e+00
               2.602286e+00
               1.888172e+00
               1.360584e+00
               1.183826e+00
               9.894472e-01
               1.184123e+00
               1.712337e+00
               2.468110e+00
               2.674603e+00
               2.169641e+00
               1.756971e+00
               1.601214e+00
               1.143197e+00
               1.364471e+00
               1.925234e+00
               2.589840e+00
               2.641961e+00
               2.299970e+00
               2.121903e+00
               2.062372e+00
               1.581680e+00
               1.840141e+00
               2.373035e+00
               2.717175e+00
               2.542698e+00
               2.471116e+00
               2.533204e+00
               2.559073e+00
               1.633044e+00
               1.883686e+00
               2.382108e+00
               2.707989e+00
               2.683313e+00
               2.704626e+00
               2.718212e+00
               2.715671e+00
               1.320890e+00
               1.544756e+00
               2.048528e+00
               2.538377e+00
               2.683985e+00
               2.659438e+00
               2.610103e+00
               2.596278e+00
               1.144564e+00
               1.345347e+00
               1.824565e+00
               2.361659e+00
               2.576795e+00
               2.546044e+00
               2.490825e+00
               2.482578e+00
               5.987242e-01
               5.182799e-01
               4.090054e-01
               3.686548e-01
               4.486898e-01
               6.729938e-01
               9.737415e-01
               1.158484e+00
               6.473359e-01
               5.551600e-01
               4.264819e-01
               3.679401e-01
               4.291220e-01
               6.296735e-01
               9.088562e-01
               1.084132e+00
               7.261778e-01
               6.158123e-01
               4.568975e-01
               3.711766e-01
               4.069758e-01
               5.769963e-01
               8.275475e-01
               9.894472e-01
               6.474553e-01
               5.543637e-01
               4.250252e-01
               3.678820e-01
               4.350556e-01
               6.513507e-01
               9.538466e-01
               1.143197e+00
               4.896790e-01
               4.366968e-01
               3.751851e-01
               3.897620e-01
               5.512315e-01
               9.064675e-01
               1.338848e+00
               1.581680e+00
               4.671207e-01
               4.210039e-01
               3.710999e-01
               3.987374e-01
               5.774839e-01
               9.522094e-01
               1.392508e+00
               1.633044e+00
               5.377741e-01
               4.723047e-01
               3.885306e-01
               3.752607e-01
               4.907631e-01
               7.677334e-01
               1.117506e+00
               1.320890e+00
               5.987243e-01
               5.182800e-01
               4.090056e-01
               3.686544e-01
               4.486351e-01
               6.719408e-01
               9.671439e-01
               1.144564e+00
        </DataArray>
      </PointData>
      <CellData>
      </CellData>
      <Points>
        <DataArray type="Float32" Name="Points" NumberOfComponents="3" format="ascii">
               2.000000e+00    -9.816844e-01     0.000000e+00
               2.128260e+00    -9.892138e-01     0.000000e+00
               2.408300e+00    -9.969722e-01     0.000000e+00
               2.790701e+00    -9.995853e-01     0.000000e+00
               3.209299e+00    -9.999664e-01     0.000000e+00
               3.591700e+00    -9.999975e-01     0.000000e+00
               3.871740e+00    -9.999997e-01     0.000000e+00
               4.000000e+00    -9.999999e-01     0.000000e+00
               1.921575e+00    -8.534245e-01     0.000000e+00
               2.049835e+00    -8.609540e-01     0.000000e+00
               2.329875e+00    -8.687123e-01     0.000000e+00
               2.712276e+00    -8.713255e-01     0.000000e+00
               3.130874e+00    -8.717065e-01     0.000000e+00
               3.513275e+00    -8.717377e-01     0.000000e+00
               3.793315e+00    -8.717398e-01     0.000000e+00
               3.921575e+00    -8.717400e-01     0.000000e+00
               1.808242e+00    -5.733845e-01     0.000000e+00
               1.936502e+00    -5.809140e-01     0.000000e+00
               2.216542e+00    -5.886723e-01     0.000000e+00
               2.598943e+00    -5.912855e-01     0.000000e+00
               3.017541e+00    -5.916665e-01     0.000000e+00
               3.399942e+00    -5.916977e-01     0.000000e+00
               3.679982e+00    -5.916999e-01     0.000000e+00
               3.808242e+00    -5.917001e-01     0.000000e+00
               1.877767e+00    -1.909836e-01     0.000000e+00
               2.006027e+00    -1.985130e-01     0.000000e+00
               2.286067e+00    -2.062714e-01     0.000000e+00
               2.668468e+00    -2.088845e-01     0.000000e+00
               3.087066e+00    -2.092656e-01     0.000000e+00
               3.469467e+00    -2.092967e-01     0.000000e+00
               3.749507e+00    -2.092989e-01     0.000000e+00
               3.877767e+00    -2.092991e-01     0.000000e+00
               2.122233e+00     2.276149e-01     0.000000e+00
               2.250493e+00     2.200854e-01     0.000000e+00
               2.530533e+00     2.123271e-01     0.000000e+00
               2.912934e+00     2.097139e-01     0.000000e+00
               3.331532e+00     2.093329e-01     0.000000e+00
               3.713933e+00     2.093017e-01     0.000000e+00
               3.993973e+00     2.092995e-01     0.000000e+00
               4.122233e+00     2.092993e-01     0.000000e+00
               2.191758e+00     6.100158e-01     0.000000e+00
               2.320018e+00     6.024864e-01     0.000000e+00
               2.600058e+00     5.947280e-01     0.000000e+00
               2.982459e+00     5.921149e-01     0.000000e+00
               3.401057e+00     5.917338e-01     0.000000e+00
               3.783458e+00     5.917027e-01     0.000000e+00
               4.063498e+00     5.917005e-01     0.000000e+00
               4.191758e+00     5.917003e-01     0.000000e+00
               2.078425e+00     8.900558e-01     0.000000e+00
               2.206685e+00     8.825263e-01     0.000000e+00
               2.486725e+00     8.747680e-01     0.000000e+00
               2.869126e+00     8.721548e-01     0.000000e+00
               3.287724e+00     8.717738e-01     0.000000e+00
               3.670125e+00     8.717426e-01     0.000000e+00
               3.950165e+00     8.717405e-01     0.000000e+00
               4.078425e+00     8.717403e-01     0.000000e+00
               2.000000e+00     1.018316e+00     0.000000e+00
               2.128260e+00     1.010786e+00     0.000000e+00
               2.408300e+00     1.003028e+00     0.000000e+00
               2.790701e+00     1.000415e+00     0.000000e+00
               3.209299e+00     1.000034e+00     0.000000e+00
               3.591700e+00     1.000002e+00     0.000000e+00
               3.871740e+00     1.000000e+00     0.000000e+00
               4.000000e+00     1.000000e+00     0.000000e+00
              -2.449294e-17     0.000000e+00     0.000000e+00
               1.282599e-01    -1.631602e-02     0.000000e+00
               4.082998e-01    -1.535539e-01     0.000000e+00
               7.907008e-01    -4.648497e-01     0.000000e+00
               1.209299e+00    -7.683215e-01     0.000000e+00
               1.591700e+00    -9.206201e-01     0.000000e+00
               1.871740e+00    -9.699054e-01     0.000000e+00
               2.000000e+00    -9.816844e-01     0.000000e+00
              -7.842495e-02     1.282599e-01     0.000000e+00
               4.983490e-02     1.119438e-01     0.000000e+00
               3.298749e-01    -2.529404e-02     0.000000e+00
               7.122758e-01    -3.365899e-01     0.000000e+00
               1.130874e+00    -6.400616e-01     0.000000e+00
               1.513275e+00    -7.923602e-01     0.000000e+00
               1.793315e+00    -8.416456e-01     0.000000e+00
               1.921575e+00    -8.534245e-01     0.000000e+00
              -1.917580e-01     4.082998e-01     0.000000e+00
              -6.349811e-02     3.919838e-01     0.000000e+00
               2.165419e-01     2.547459e-01     0.000000e+00
               5.989428e-01    -5.654993e-02     0.000000e+00
               1.017541e+00    -3.600217e-01     0.000000e+00
               1.399942e+00    -5.123202e-01     0.000000e+00
               1.679982e+00    -5.616056e-01     0.000000e+00
               1.808242e+00    -5.733845e-01     0.000000e+00
              -1.222332e-01     7.907008e-01     0.000000e+00
               6.026654e-03     7.743848e-01     0.000000e+00
               2.860666e-01     6.371469e-01     0.000000e+00
               6.684676e-01     3.258510e-01     0.000000e+00
               1.087066e+00     2.237929e-02     0.000000e+00
               1.469467e+00    -1.299193e-01     0.000000e+00
               1.749507e+00    -1.792047e-01     0.000000e+00
               1.877767e+00    -1.909836e-01     0.000000e+00
               1.222332e-01     1.209299e+00     0.000000e+00
               2.504930e-01     1.192983e+00     0.000000e+00
               5.305330e-01     1.055745e+00     0.000000e+00
               9.129340e-01     7.444495e-01     0.000000e+00
               1.331532e+00     4.409777e-01     0.000000e+00
               1.713933e+00     2.886792e-01     0.000000e+00
               1.993973e+00     2.393938e-01     0.000000e+00
               2.122233e+00     2.276149e-01     0.000000e+00
               1.917580e-01     1.591700e+00     0.000000e+00
               3.200178e-01     1.575384e+00     0.000000e+00
               6.000578e-01     1.438146e+00     0.000000e+00
               9.824587e-01     1.126850e+00     0.000000e+00
               1.401057e+00     8.233787e-01     0.000000e+00
               1.783458e+00     6.710801e-01     0.000000e+00
               2.063498e+00     6.217947e-01     0.000000e+00
               2.191758e+00     6.100158e-01     0.000000e+00
               7.842495e-02     1.871740e+00     0.000000e+00
               2.066848e-01     1.855424e+00     0.000000e+00
               4.867248e-01     1.718186e+00     0.000000e+00
               8.691257e-01     1.406890e+00     0.000000e+00
               1.287724e+00     1.103419e+00     0.000000e+00
               1.670125e+00     9.511201e-01     0.000000e+00
               1.950165e+00     9.018347e-01     0.000000e+00
               2.078425e+00     8.900558e-01     0.000000e+00
               2.021286e-16     2.000000e+00     0.000000e+00
               1.282599e-01     1.983684e+00     0.000000e+00
               4.082998e-01     1.846446e+00     0.000000e+00
               7.907008e-01     1.535150e+00     0.000000e+00
               1.209299e+00     1.231679e+00     0.000000e+00
               1.591700e+00     1.079380e+00     0.000000e+00
               1.871740e+00     1.030095e+00     0.000000e+00
               2.000000e+00     1.018316e+00     0.000000e+00
              -2.000000e+00    -9.816844e-01     0.000000e+00
              -1.871740e+00    -9.699054e-01     0.000000e+00
              -1.591700e+00    -9.206201e-01     0.000000e+00
              -1.209299e+00    -7.683215e-01     0.000000e+00
              -7.907008e-01    -4.648497e-01     0.000000e+00
              -4.082998e-01    -1.535539e-01     0.000000e+00
              -1.282599e-01    -1.631602e-02     0.000000e+00
              -3.575598e-16     0.000000e+00     0.000000e+00
              -2.078425e+00    -8.534245e-01     0.000000e+00
              -1.950165e+00    -8.416456e-01     0.000000e+00
              -1.670125e+00    -7.923602e-01     0.000000e+00
              -1.287724e+00    -6.400616e-01     0.000000e+00
              -8.691257e-01    -3.365899e-01     0.000000e+00
              -4.867248e-01    -2.529404e-02     0.000000e+00
              -2.066848e-01     1.119438e-01     0.000000e+00
              -7.842495e-02     1.282599e-01     0.000000e+00
              -2.191758e+00    -5.733845e-01     0.000000e+00
              -2.063498e+00    -5.616056e-01     0.000000e+00
              -1.783458e+00    -5.123202e-01     0.000000e+00
              -1.401057e+00    -3.600217e-01     0.000000e+00
              -9.824587e-01    -5.654993e-02     0.000000e+00
              -6.000578e-01     2.547459e-01     0.000000e+00
              -3.200178e-01     3.919838e-01     0.000000e+00
              -1.917580e-01     4.082998e-01     0.000000e+00
              -2.122233e+00    -1.909836e-01     0.000000e+00
              -1.993973e+00    -1.792047e-01     0.000000e+00
              -1.713933e+00    -1.299193e-01     0.000000e+00
              -1.331532e+00     2.237929e-02     0.000000e+00
              -9.129340e-01     3.258510e-01     0.000000e+00
              -5.305330e-01     6.371469e-01     0.000000e+00
              -2.504930e-01     7.743848e-01     0.000000e+00
              -1.222332e-01     7.907008e-01     0.000000e+00
              -1.877767e+00     2.276149e-01     0.000000e+00
              -1.749507e+00     2.393938e-01     0.000000e+00
              -1.469467e+00     2.886792e-01     0.000000e+00
              -1.087066e+00     4.409777e-01     0.000000e+00
              -6.684676e-01     7.444495e-01     0.000000e+00
              -2.860666e-01     1.055745e+00     0.000000e+00
              -6.026654e-03     1.192983e+00     0.000000e+00
               1.222332e-01     1.209299e+00     0.000000e+00
              -1.808242e+00     6.100158e-01     0.000000e+00
              -1.679982e+00     6.217947e-01     0.000000e+00
              -1.399942e+00     6.710801e-01     0.000000e+00
              -1.017541e+00     8.233787e-01     0.000000e+00
              -5.989428e-01     1.126850e+00     0.000000e+00
              -2.165419e-01     1.438146e+00     0.000000e+00
               6.349811e-02     1.575384e+00     0.000000e+00
               1.917580e-01     1.591700e+00     0.000000e+00
              -1.921575e+00     8.900558e-01     0.000000e+00
              -1.793315e+00     9.018347e-01     0.000000e+00
              -1.513275e+00     9.511201e-01     0.000000e+00
              -1.130874e+00     1.103419e+00     0.000000e+00
              -7.122758e-01     1.406890e+00     0.000000e+00
              -3.298749e-01     1.718186e+00     0.000000e+00
              -4.983490e-02     1.855424e+00     0.000000e+00
               7.842495e-02     1.871740e+00     0.000000e+00
              -2.000000e+00     1.018316e+00     0.000000e+00
              -1.871740e+00     1.030095e+00     0.000000e+00
              -1.591700e+00     1.079380e+00     0.000000e+00
              -1.209299e+00     1.231679e+00     0.000000e+00
              -7.907008e-01     1.535150e+00     0.000000e+00
              -4.082998e-01     1.846446e+00     0.000000e+00
              -1.282599e-01     1.983684e+00     0.000000e+00
              -1.309383e-16     2.000000e+00     0.000000e+00
              -4.000000e+00    -9.999999e-01     0.000000e+00
              -3.871740e+00    -9.999997e-01     0.000000e+00
              -3.591700e+00    -9.999975e-01     0.000000e+00
              -3.209299e+00    -9.999664e-01     0.000000e+00
              -2.790701e+00    -9.995853e-01     0.000000e+00
              -2.408300e+00    -9.969722e-01     0.000000e+00
              -2.128260e+00    -9.892138e-01     0.000000e+00
              -2.000000e+00    -9.816844e-01     0.000000e+00
              -4.078425e+00    -8.717400e-01     0.000000e+00
              -3.950165e+00    -8.717398e-01     0.000000e+00
              -3.670125e+00    -8.717377e-01     0.000000e+00
              -3.287724e+00    -8.717065e-01     0.000000e+00
              -2.869126e+00    -8.713255e-01     0.000000e+00
              -2.486725e+00    -8.687123e-01     0.000000e+00
              -2.206685e+00    -8.609540e-01     0.000000e+00
              -2.078425e+00    -8.534245e-01     0.000000e+00
              -4.191758e+00    -5.917001e-01     0.000000e+00
              -4.063498e+00    -5.916999e-01     0.000000e+00
              -3.783458e+00    -5.916977e-01     0.000000e+00
              -3.401057e+00    -5.916665e-01     0.000000e+00
              -2.982459e+00    -5.912855e-01     0.000000e+00
              -2.600058e+00    -5.886723e-01     0.000000e+00
              -2.320018e+00    -5.809140e-01     0.000000e+00
              -2.191758e+00    -5.733845e-01     0.000000e+00
              -4.122233e+00    -2.092991e-01     0.000000e+00
              -3.993973e+00    -2.092989e-01     0.000000e+00
              -3.713933e+00    -2.092967e-01     0.000000e+00
              -3.331532e+00    -2.092656e-01     0.000000e+00
              -2.912934e+00    -2.088845e-01     0.000000e+00
              -2.530533e+00    -2.062714e-01     0.000000e+00
              -2.250493e+00    -1.985130e-01     0.000000e+00
              -2.122233e+00    -1.909836e-01     0.000000e+00
              -3.877767e+00     2.092993e-01     0.000000e+00
              -3.749507e+00     2.092995e-01     0.000000e+00
              -3.469467e+00     2.093017e-01     0.000000e+00
              -3.087066e+00     2.093329e-01     0.000000e+00
              -2.668468e+00     2.097139e-01     0.000000e+00
              -2.286067e+00     2.123271e-01     0.000000e+00
              -2.006027e+00     2.200854e-01     0.000000e+00
              -1.877767e+00     2.276149e-01     0.000000e+00
              -3.808242e+00     5.917003e-01     0.000000e+00
              -3.679982e+00     5.917005e-01     0.000000e+00
              -3.399942e+00     5.917027e-01     0.000000e+00
              -3.017541e+00     5.917338e-01     0.000000e+00
              -2.598943e+00     5.921149e-01     0.000000e+00
              -2.216542e+00     5.947280e-01     0.000000e+00
              -1.936502e+00     6.024864e-01     0.000000e+00
              -1.808242e+00     6.100158e-01     0.000000e+00
              -3.921575e+00     8.717403e-01     0.000000e+00
              -3.793315e+00     8.717405e-01     0.000000e+00
              -3.513275e+00     8.717426e-01     0.000000e+00