<?xml version="1.0"?>
<VTKFile type="UnstructuredGrid" version="1.0" byte_order="LittleEndian" header_type="UInt64">
  <UnstructuredGrid>
    <Piece NumberOfPoints="16" NumberOfCells="1">
      <PointData>
        <DataArray type="Float32" Name="data" format="ascii">
               7.213542e-07
               1.748004e-05
               1.748004e-05
               7.213542e-07
               1.748004e-05
               1.791763e-03
               1.791763e-03
               1.748004e-05
               1.748004e-05
               1.791763e-03
               1.791763e-03
               1.748004e-05
               7.213542e-07
               1.748004e-05
               1.748004e-05
               7.213542e-07
        </DataArray>
      </PointData>
      <CellData>
      </CellData>
      <Points>
        <DataArray type="Float32" Name="Points" NumberOfComponents="3" format="ascii">
              -1.000000e+00    -1.000000e+00     0.000000e+00
              -4.472136e-01    -1.000000e+00     0.000000e+00
               4.472136e-01    -1.000000e+00     0.000000e+00
               1.000000e+00    -1.000000e+00     0.000000e+00
              -1.000000e+00    -4.472136e-01     0.000000e+00
              -4.472136e-01    -4.472136e-01     0.000000e+00
               4.472136e-01    -4.472136e-01     0.000000e+00
               1.000000e+00    -4.472136e-01     0.000000e+00
              -1.000000e+00     4.472136e-01     0.000000e+00
              -4.472136e-01     4.472136e-01     0.000000e+00
               4.472136e-01     4.472136e-01     0.000000e+00
               1.000000e+00     4.472136e-01     0.000000e+00
              -1.000000e+00     1.000000e+00     0.000000e+00
              -4.472136e-01     1.000000e+00     0.000000e+00
               4.472136e-01     1.000000e+00     0.000000e+00
               1.000000e+00     1.000000e+00     0.000000e+00
        </DataArray>
      </Points>
      <Cells>
        <DataArray type="Int64" Name="connectivity" format="ascii">
           0 3 15 12
           1 2
           7 11
           13 14
           4 8
           5 6
           9 10
        </DataArray>
        <DataArray type="Int64" Name="offsets" format="ascii">
           16
        </DataArray>
        <DataArray type="UInt8" Name="types" format="ascii">
           70
        </DataArray>
      </Cells>
    </Piece>
  </UnstructuredGrid>
</VTKFile>
