<?xml version="1.0"?>
<VTKFile type="UnstructuredGrid" version="1.0" byte_order="LittleEndian" header_type="UInt64">
  <UnstructuredGrid>
    <Piece NumberOfPoints="256" NumberOfCells="4">
      <PointData>
        <DataArray type="Float32" Name="data" format="ascii">
               1.154118e+00
               5.665125e-01
               3.808695e-01
               5.987242e-01
               1.692821e+00
               8.043782e-01
               3.695262e-01
               4.606992e-01
               1.001221e+00
               4.973500e-01
               4.083657e-01
               7.228460e-01
               1.148997e+00
               5.663771e-01
               3.808696e-01
               5.987242e-01
               1.157235e+00
               5.665953e-01
               3.808694e-01
               5.987242e-01
               1.694827e+00
               8.044477e-01
               3.695262e-01
               4.606992e-01
               1.000015e+00
               4.973228e-01
               4.083657e-01
               7.228460e-01
               1.145839e+00
               5.662942e-01
               3.808696e-01
               5.987243e-01
               1.157235e+00
               5.665953e-01
               3.808694e-01
               5.987242e-01
               1.694827e+00
               8.044477e-01
               3.695262e-01
               4.606992e-01
               1.000015e+00
               4.973228e-01
               4.083657e-01
               7.228460e-01
               1.145839e+00
               5.662942e-01
               3.808696e-01
               5.987243e-01
               1.154118e+00
               5.665125e-01
               3.808695e-01
               5.987242e-01
               1.692821e+00
               8.043782e-01
               3.695262e-01
               4.606992e-01
               1.001221e+00
               4.973500e-01
               4.083657e-01
               7.228460e-01
               1.148997e+00
               5.663771e-01
               3.808696e-01
               5.987242e-01
               1.805535e+00
               2.402897e+00
               2.165775e+00
               1.154118e+00
               1.331060e+00
               1.661840e+00
               2.640200e+00
               1.692821e+00
               2.135767e+00
               2.607272e+00
               1.997888e+00
               1.001221e+00
               2.663079e+00
               2.709901e+00
               2.110520e+00
               1.148997e+00
               1.197550e+00
               2.156833e+00
               2.197039e+00
               1.157235e+00
               1.565269e+00
               1.652757e+00
               2.647314e+00
               1.694827e+00
               2.618407e+00
               2.710028e+00
               1.980386e+00
               1.000015e+00
               2.636419e+00
               2.657645e+00
               2.074143e+00
               1.145839e+00
               1.197550e+00
               2.156833e+00
               2.197039e+00
               1.157235e+00
               1.565269e+00
               1.652757e+00
               2.647314e+00
               1.694827e+00
               2.618407e+00
               2.710028e+00
               1.980386e+00
               1.000015e+00
               2.636419e+00
               2.657645e+00
               2.074143e+00
               1.145839e+00
               1.805535e+00
               2.402897e+00
               2.165775e+00
               1.154118e+00
               1.331060e+00
               1.661840e+00
               2.640200e+00
               1.692821e+00
               2.135767e+00
               2.607272e+00
               1.997888e+00
               1.001221e+00
               2.663079e+00
               2.709901e+00
               2.110520e+00
               1.148997e+00
               1.154118e+00
               2.165775e+00
               2.402897e+00
               1.805535e+00
               1.003144e+00
               2.022504e+00
               2.410204e+00
               1.331060e+00
               1.689471e+00
               2.625552e+00
               2.156858e+00
               2.135767e+00
               1.148997e+00
               2.110520e+00
               2.709901e+00
               2.663079e+00
               1.157235e+00
               2.197039e+00
               2.156833e+00
               1.197550e+00
               1.004297e+00
               2.035147e+00
               2.406607e+00
               1.565269e+00
               1.687371e+00
               2.614517e+00
               2.505769e+00
               2.618407e+00
               1.145839e+00
               2.074143e+00
               2.657645e+00
               2.636419e+00
               1.157235e+00
               2.197039e+00
               2.156833e+00
               1.197550e+00
               1.004297e+00
               2.035147e+00
               2.406607e+00
               1.565269e+00
               1.687371e+00
               2.614517e+00
               2.505769e+00
               2.618407e+00
               1.145839e+00
               2.074143e+00
               2.657645e+00
               2.636419e+00
               1.154118e+00
               2.165775e+00
               2.402897e+00
               1.805535e+00
               1.003144e+00
               2.022504e+00
               2.410204e+00
               1.331060e+00
               1.689471e+00
               2.625552e+00
               2.156858e+00
               2.135767e+00
               1.148997e+00
               2.110520e+00
               2.709901e+00
               2.663079e+00
               5.987242e-01
               3.808695e-01
               5.665125e-01
               1.154118e+00
               7.228460e-01
               4.083656e-01
               4.973942e-01
               1.003144e+00
               4.606992e-01
               3.695262e-01
               8.042646e-01
               1.689471e+00
               5.987242e-01
               3.808696e-01
               5.663771e-01
               1.148997e+00
               5.987242e-01
               3.808694e-01
               5.665953e-01
               1.157235e+00
               7.228460e-01
               4.083656e-01
               4.974213e-01
               1.004297e+00
               4.606992e-01
               3.695262e-01
               8.041948e-01
               1.687371e+00
               5.987243e-01
               3.808696e-01
               5.662942e-01
               1.145839e+00
               5.987242e-01
               3.808694e-01
               5.665953e-01
               1.157235e+00
               7.228460e-01
               4.083656e-01
               4.974213e-01
               1.004297e+00
               4.606992e-01
               3.695262e-01
               8.041948e-01
               1.687371e+00
               5.987243e-01
               3.808696e-01
               5.662942e-01
               1.145839e+00
               5.987242e-01
               3.808695e-01
               5.665125e-01
               1.154118e+00
               7.228460e-01
               4.083656e-01
               4.973942e-01
               1.003144e+00
               4.606992e-01
               3.695262e-01
               8.042646e-01
               1.689471e+00
               5.987242e-01
               3.808696e-01
               5.663771e-01
               1.148997e+00
        </DataArray>
      </PointData>
      <CellData>
      </CellData>
      <Points>
        <DataArray type="Float32" Name="Points" NumberOfComponents="3" format="ascii">
               2.000000e+00    -9.932621e-01    -1.000000e+00
               2.552786e+00    -9.994561e-01    -8.027438e-01
               3.447214e+00    -9.999975e-01    -1.197256e+00
               4.000000e+00    -1.000000e+00    -1.000000e+00
               1.802744e+00    -4.404756e-01    -1.000000e+00
               2.355530e+00    -4.466697e-01    -8.027438e-01
               3.249957e+00    -4.472111e-01    -1.197256e+00
               3.802744e+00    -4.472136e-01    -1.000000e+00
               2.197256e+00     4.539515e-01    -1.000000e+00
               2.750043e+00     4.477575e-01    -8.027438e-01
               3.644470e+00     4.472161e-01    -1.197256e+00
               4.197256e+00     4.472136e-01    -1.000000e+00
               2.000000e+00     1.006738e+00    -1.000000e+00
               2.552786e+00     1.000544e+00    -8.027438e-01
               3.447214e+00     1.000003e+00    -1.197256e+00
               4.000000e+00     1.000000e+00    -1.000000e+00
               2.000000e+00    -9.850044e-01    -4.472136e-01
               2.552786e+00    -9.987895e-01    -2.499574e-01
               3.447214e+00    -9.999943e-01    -6.444698e-01
               4.000000e+00    -9.999999e-01    -4.472136e-01
               1.802744e+00    -4.322180e-01    -4.472136e-01
               2.355530e+00    -4.460031e-01    -2.499574e-01
               3.249957e+00    -4.472079e-01    -6.444698e-01
               3.802744e+00    -4.472135e-01    -4.472136e-01
               2.197256e+00     4.622092e-01    -4.472136e-01
               2.750043e+00     4.484241e-01    -2.499574e-01
               3.644470e+00     4.472192e-01    -6.444698e-01
               4.197256e+00     4.472137e-01    -4.472136e-01
               2.000000e+00     1.014996e+00    -4.472136e-01
               2.552786e+00     1.001211e+00    -2.499574e-01
               3.447214e+00     1.000006e+00    -6.444698e-01
               4.000000e+00     1.000000e+00    -4.472136e-01
               2.000000e+00    -9.850044e-01     4.472136e-01
               2.552786e+00    -9.987895e-01     6.444698e-01
               3.447214e+00    -9.999943e-01     2.499574e-01
               4.000000e+00    -9.999999e-01     4.472136e-01
               1.802744e+00    -4.322180e-01     4.472136e-01
               2.355530e+00    -4.460031e-01     6.444698e-01
               3.249957e+00    -4.472079e-01     2.499574e-01
               3.802744e+00    -4.472135e-01     4.472136e-01
               2.197256e+00     4.622092e-01     4.472136e-01
               2.750043e+00     4.484241e-01     6.444698e-01
               3.644470e+00     4.472192e-01     2.499574e-01
               4.197256e+00     4.472137e-01     4.472136e-01
               2.000000e+00     1.014996e+00     4.472136e-01
               2.552786e+00     1.001211e+00     6.444698e-01
               3.447214e+00     1.000006e+00     2.499574e-01
               4.000000e+00     1.000000e+00     4.472136e-01
               2.000000e+00    -9.932621e-01     1.000000e+00
               2.552786e+00    -9.994561e-01     1.197256e+00
               3.447214e+00    -9.999975e-01     8.027438e-01
               4.000000e+00    -1.000000e+00     1.000000e+00
               1.802744e+00    -4.404756e-01     1.000000e+00
               2.355530e+00    -4.466697e-01     1.197256e+00
               3.249957e+00    -4.472111e-01     8.027438e-01
               3.802744e+00    -4.472136e-01     1.000000e+00
               2.197256e+00     4.539515e-01     1.000000e+00
               2.750043e+00     4.477575e-01     1.197256e+00
               3.644470e+00     4.472161e-01     8.027438e-01
               4.197256e+00     4.472136e-01     1.000000e+00
               2.000000e+00     1.006738e+00     1.000000e+00
               2.552786e+00     1.000544e+00     1.197256e+00
               3.447214e+00     1.000003e+00     8.027438e-01
               4.000000e+00     1.000000e+00     1.000000e+00
              -2.449294e-17    -6.321206e-01    -1.000000e+00
               5.527864e-01    -7.289828e-01    -8.027438e-01
               1.447214e+00    -9.546990e-01    -1.197256e+00
               2.000000e+00    -9.932621e-01    -1.000000e+00
              -1.972562e-01    -7.933415e-02    -1.000000e+00
               3.555302e-01    -1.761963e-01    -8.027438e-01
               1.249957e+00    -4.019126e-01    -1.197256e+00
               1.802744e+00    -4.404756e-01    -1.000000e+00
               1.972562e-01     8.150930e-01    -1.000000e+00
               7.500426e-01     7.182308e-01    -8.027438e-01
               1.644470e+00     4.925145e-01    -1.197256e+00
               2.197256e+00     4.539515e-01    -1.000000e+00
               1.133108e-16     1.367879e+00    -1.000000e+00
               5.527864e-01     1.271017e+00    -8.027438e-01
               1.447214e+00     1.045301e+00    -1.197256e+00
               2.000000e+00     1.006738e+00    -1.000000e+00
              -2.449294e-17    -1.812692e-01    -4.472136e-01
               5.527864e-01    -3.968400e-01    -2.499574e-01
               1.447214e+00    -8.991809e-01    -6.444698e-01
               2.000000e+00    -9.850044e-01    -4.472136e-01
              -1.972562e-01     3.715172e-01    -4.472136e-01
               3.555302e-01     1.559464e-01    -2.499574e-01
               1.249957e+00    -3.463945e-01    -6.444698e-01
               1.802744e+00    -4.322180e-01    -4.472136e-01
               1.972562e-01     1.265944e+00    -4.472136e-01
               7.500426e-01     1.050374e+00    -2.499574e-01
               1.644470e+00     5.480327e-01    -6.444698e-01
               2.197256e+00     4.622092e-01    -4.472136e-01
               1.133108e-16     1.818731e+00    -4.472136e-01
               5.527864e-01     1.603160e+00    -2.499574e-01
               1.447214e+00     1.100819e+00    -6.444698e-01
               2.000000e+00     1.014996e+00    -4.472136e-01
              -2.449294e-17    -1.812692e-01     4.472136e-01
               5.527864e-01    -3.968400e-01     6.444698e-01
               1.447214e+00    -8.991809e-01     2.499574e-01
               2.000000e+00    -9.850044e-01     4.472136e-01
              -1.972562e-01     3.715172e-01     4.472136e-01
               3.555302e-01     1.559464e-01     6.444698e-01
               1.249957e+00    -3.463945e-01     2.499574e-01
               1.802744e+00    -4.322180e-01     4.472136e-01
               1.972562e-01     1.265944e+00     4.472136e-01
               7.500426e-01     1.050374e+00     6.444698e-01
               1.644470e+00     5.480327e-01     2.499574e-01
               2.197256e+00     4.622092e-01     4.472136e-01
               1.133108e-16     1.818731e+00     4.472136e-01
               5.527864e-01     1.603160e+00     6.444698e-01
               1.447214e+00     1.100819e+00     2.499574e-01
               2.000000e+00     1.014996e+00     4.472136e-01
              -2.449294e-17    -6.321206e-01     1.000000e+00
               5.527864e-01    -7.289828e-01     1.197256e+00
               1.447214e+00    -9.546990e-01     8.027438e-01
               2.000000e+00    -9.932621e-01     1.000000e+00
              -1.972562e-01    -7.933415e-02     1.000000e+00
               3.555302e-01    -1.761963e-01     1.197256e+00
               1.249957e+00    -4.019126e-01     8.027438e-01
               1.802744e+00    -4.404756e-01     1.000000e+00
               1.972562e-01     8.150930e-01     1.000000e+00
               7.500426e-01     7.182308e-01     1.197256e+00
               1.644470e+00     4.925145e-01     8.027438e-01
               2.197256e+00     4.539515e-01     1.000000e+00
               1.133108e-16     1.367879e+00     1.000000e+00
               5.527864e-01     1.271017e+00     1.197256e+00
               1.447214e+00     1.045301e+00     8.027438e-01
               2.000000e+00     1.006738e+00     1.000000e+00
              -2.000000e+00    -9.932621e-01    -1.000000e+00
              -1.447214e+00    -9.546990e-01    -8.027438e-01
              -5.527864e-01    -7.289828e-01    -1.197256e+00
              -1.355152e-16    -6.321206e-01    -1.000000e+00
              -2.197256e+00    -4.404756e-01    -1.000000e+00
              -1.644470e+00    -4.019126e-01    -8.027438e-01
              -7.500426e-01    -1.761963e-01    -1.197256e+00
              -1.972562e-01    -7.933415e-02    -1.000000e+00
              -1.802744e+00     4.539515e-01    -1.000000e+00
              -1.249957e+00     4.925145e-01    -8.027438e-01
              -3.555302e-01     7.182308e-01    -1.197256e+00
               1.972562e-01     8.150930e-01    -1.000000e+00
              -2.000000e+00     1.006738e+00    -1.000000e+00
              -1.447214e+00     1.045301e+00    -8.027438e-01
              -5.527864e-01     1.271017e+00    -1.197256e+00
               2.288475e-18     1.367879e+00    -1.000000e+00
              -2.000000e+00    -9.850044e-01    -4.472136e-01
              -1.447214e+00    -8.991809e-01    -2.499574e-01
              -5.527864e-01    -3.968400e-01    -6.444698e-01
              -1.355152e-16    -1.812692e-01    -4.472136e-01
              -2.197256e+00    -4.322180e-01    -4.472136e-01
              -1.644470e+00    -3.463945e-01    -2.499574e-01
              -7.500426e-01     1.559464e-01    -6.444698e-01
              -1.972562e-01     3.715172e-01    -4.472136e-01
              -1.802744e+00     4.622092e-01    -4.472136e-01
              -1.249957e+00     5.480327e-01    -2.499574e-01
              -3.555302e-01     1.050374e+00    -6.444698e-01
               1.972562e-01     1.265944e+00    -4.472136e-01
              -2.000000e+00     1.014996e+00    -4.472136e-01
              -1.447214e+00     1.100819e+00    -2.499574e-01
              -5.527864e-01     1.603160e+00    -6.444698e-01
               2.288475e-18     1.818731e+00    -4.472136e-01
              -2.000000e+00    -9.850044e-01     4.472136e-01
              -1.447214e+00    -8.991809e-01     6.444698e-01
              -5.527864e-01    -3.968400e-01     2.499574e-01
              -1.355152e-16    -1.812692e-01     4.472136e-01
              -2.197256e+00    -4.322180e-01     4.472136e-01
              -1.644470e+00    -3.463945e-01     6.444698e-01
              -7.500426e-01     1.559464e-01     2.499574e-01
              -1.972562e-01     3.715172e-01     4.472136e-01
              -1.802744e+00     4.622092e-01     4.472136e-01
              -1.249957e+00     5.480327e-01     6.444698e-01
              -3.555302e-01     1.050374e+00     2.499574e-01
               1.972562e-01     1.265944e+00     4.472136e-01
              -2.000000e+00     1.014996e+00     4.472136e-01
              -1.447214e+00     1.100819e+00     6.444698e-01
              -5.527864e-01     1.603160e+00     2.499574e-01
               2.288475e-18     1.818731e+00     4.472136e-01
              -2.000000e+00    -9.932621e-01     1.000000e+00
              -1.447214e+00    -9.546990e-01     1.197256e+00
              -5.527864e-01    -7.289828e-01     8.027438e-01
              -1.355152e-16    -6.321206e-01     1.000000e+00
              -2.197256e+00    -4.404756e-01     1.000000e+00
              -1.644470e+00    -4.019126e-01     1.197256e+00
              -7.500426e-01    -1.761963e-01     8.027438e-01
              -1.972562e-01    -7.933415e-02     1.000000e+00
              -1.802744e+00     4.539515e-01     1.000000e+00
              -1.249957e+00     4.925145e-01     1.197256e+00
              -3.555302e-01     7.182308e-01     8.027438e-01
               1.972562e-01     8.150930e-01     1.000000e+00
              -2.000000e+00     1.006738e+00     1.000000e+00
              -1.447214e+00     1.045301e+00     1.197256e+00
              -5.527864e-01     1.271017e+00     8.027438e-01
               2.288475e-18     1.367879e+00     1.000000e+00
              -4.000000e+00    -1.000000e+00    -1.000000e+00
              -3.447214e+00    -9.999975e-01    -8.027438e-01
              -2.552786e+00    -9.994561e-01    -1.197256e+00
              -2.000000e+00    -9.932621e-01    -1.000000e+00
              -4.197256e+00    -4.472136e-01    -1.000000e+00
              -3.644470e+00    -4.472111e-01    -8.027438e-01
              -2.750043e+00    -4.466697e-01    -1.197256e+00
              -2.197256e+00    -4.404756e-01    -1.000000e+00
              -3.802744e+00     4.472136e-01    -1.000000e+00
              -3.249957e+00     4.472161e-01    -8.027438e-01
              -2.355530e+00     4.477575e-01    -1.197256e+00
              -1.802744e+00     4.539515e-01    -1.000000e+00
              -4.000000e+00     1.000000e+00    -1.000000e+00
              -3.447214e+00     1.000003e+00    -8.027438e-01
              -2.552786e+00     1.000544e+00    -1.197256e+00
              -2.000000e+00     1.006738e+00    -1.000000e+00
              -4.000000e+00    -9.999999e-01    -4.472136e-01
              -3.447214e+00    -9.999943e-01    -2.499574e-01
              -2.552786e+00    -9.987895e-01    -6.444698e-01
              -2.000000e+00    -9.850044e-01    -4.472136e-01
              -4.197256e+00    -4.472135e-01    -4.472136e-01
              -3.644470e+00    -4.472079e-01    -2.499574e-01
              -2.750043e+00    -4.460031e-01    -6.444698e-01
              -2.197256e+00    -4.322180e-01    -4.472136e-01
              -3.802744e+00     4.472137e-01    -4.472136e-01
              -3.249957e+00     4.472192e-01    -2.499574e-01
              -2.355530e+00     4.484241e-01    -6.444698e-01
              -1.802744e+00     4.622092e-01    -4.472136e-01
              -4.000000e+00     1.000000e+00    -4.472136e-01
              -3.447214e+00     1.000006e+00    -2.499574e-01
              -2.552786e+00     1.001211e+00    -6.444698e-01
              -2.000000e+00     1.014996e+00    -4.472136e-01
              -4.000000e+00    -9.999999e-01     4.472136e-01
              -3.447214e+00    -9.999943e-01     6.444698e-01
              -2.552786e+00    -9.987895e-01     2.499574e-01
              -2.000000e+00    -9.850044e-01     4.472136e-01
              -4.197256e+00    -4.472135e-01     4.472136e-01
              -3.644470e+00    -4.472079e-01     6.444698e-01
              -2.750043e+00    -4.460031e-01     2.499574e-01
              -2.197256e+00    -4.322180e-01     4.472136e-01
              -3.802744e+00     4.472137e-01     4.472136e-01
              -3.249957e+00     4.472192e-01     6.444698e-01
              -2.355530e+00     4.484241e-01     2.499574e-01
              -1.802744e+00     4.622092e-01     4.472136e-01
              -4.000000e+00     1.000000e+00     4.472136e-01
              -3.447214e+00     1.000006e+00     6.444698e-01
              -2.552786e+00     1.001211e+00     2.499574e-01
              -2.000000e+00     1.014996e+00     4.472136e-01
              -4.000000e+00    -1.000000e+00     1.000000e+00
              -3.447214e+00    -9.999975e-01     1.197256e+00
              -2.552786e+00    -9.994561e-01     8.027438e-01
              -2.000000e+00    -9.932621e-01     1.000000e+00
              -4.197256e+00    -4.472136e-01     1.000000e+00
              -3.644470e+00    -4.472111e-01     1.197256e+00
              -2.750043e+00    -4.466697e-01     8.027438e-01
              -2.197256e+00    -4.404756e-01     1.000000e+00
              -3.802744e+00     4.472136e-01     1.000000e+00
              -3.249957e+00     4.472161e-01     1.197256e+00
              -2.355530e+00     4.477575e-01     8.027438e-01
              -1.802744e+00     4.539515e-01     1.000000e+00
              -4.000000e+00     1.000000e+00     1.000000e+00
              -3.447214e+00     1.000003e+00     1.197256e+00
              -2.552786e+00     1.000544e+00     8.027438e-01
              -2.000000e+00     1.006738e+00     1.000000e+00
        </DataArray>
      </Points>
      <Cells>
        <DataArray type="Int64" Name="connectivity" format="ascii">
           0 3 15 12 48 51 63 60
           1 2
           7 11
           13 14
           4 8
           49 50
           55 59
           61 62
           52 56
           16 32
           19 35
           28 44
           31 47
           20 24 36 40
           23 27 39 43
           17 18 33 34
           29 30 45 46
           5 6 9 10
           53 54 57 58
           21 22 25 26 37 38 41 42
           64 67 79 76 112 115 127 124
           65 66
           71 75
           77 78
           68 72
           113 114
           119 123
           125 126
           116 120
           80 96
           83 99
           92 108
           95 111
           84 88 100 104
           87 91 103 107
           81 82 97 98
           93 94 109 110
           69 70 73 74
           117 118 121 122
           85 86 89 90 101 102 105 106
           128 131 143 140 176 179 191 188
           129 130
           135 139
           141 142
           132 136
           177 178
           183 187
           189 190
           180 184
           144 160
           147 163
           156 172
           159 175
           148 152 164 168
           151 155 167 171
           145 146 161 162
           157 158 173 174
           133 134 137 138
           181 182 185 186
           149 150 153 154 165 166 169 170
           192 195 207 204 240 243 255 252
           193 194
           199 203
           205 206
           196 200
           241 242
           247 251
           253 254
           244 248
           208 224
           211 227
           220 236
           223 239
           212 216 228 232
           215 219 231 235
           209 210 225 226
           221 222 237 238
           197 198 201 202
           245 246 249 250
           213 214 217 218 229 230 233 234
        </DataArray>
        <DataArray type="Int64" Name="offsets" format="ascii">
           64
           128
           192
           256
        </DataArray>
        <DataArray type="UInt8" Name="types" format="ascii">
           72
           72
           72
           72
        </DataArray>
      </Cells>
    </Piece>
  </UnstructuredGrid>
</VTKFile>
