<?xml version="1.0"?>
<VTKFile type="UnstructuredGrid" version="1.0" byte_order="LittleEndian" header_type="UInt64">
  <UnstructuredGrid>
    <Piece NumberOfPoints="64" NumberOfCells="1">
      <PointData>
        <DataArray type="Float32" Name="data" format="ascii">
               3.004685e-08
               3.617194e-07
               3.617194e-07
               3.004685e-08
               3.617194e-07
               7.267054e-06
               7.267054e-06
               3.617194e-07
               3.617194e-07
               7.267054e-06
               7.267054e-06
               3.617194e-07
               3.004685e-08
               3.617194e-07
               3.617194e-07
               3.004685e-08
               3.617194e-07
               7.267054e-06
               7.267054e-06
               3.617194e-07
               7.267054e-06
               4.324834e-04
               4.324834e-04
               7.267054e-06
               7.267054e-06
               4.324834e-04
               4.324834e-04
               7.267054e-06
               3.617194e-07
               7.267054e-06
               7.267054e-06
               3.617194e-07
               3.617194e-07
               7.267054e-06
               7.267054e-06
               3.617194e-07
               7.267054e-06
               4.324834e-04
               4.324834e-04
               7.267054e-06
               7.267054e-06
               4.324834e-04
               4.324834e-04
               7.267054e-06
               3.617194e-07
               7.267054e-06
               7.267054e-06
               3.617194e-07
               3.004685e-08
               3.617194e-07
               3.617194e-07
               3.004685e-08
               3.617194e-07
               7.267054e-06
               7.267054e-06
               3.617194e-07
               3.617194e-07
               7.267054e-06
               7.267054e-06
               3.617194e-07
               3.004685e-08
               3.617194e-07
               3.617194e-07
               3.004685e-08
        </DataArray>
      </PointData>
      <CellData>
      </CellData>
      <Points>
        <DataArray type="Float32" Name="Points" NumberOfComponents="3" format="ascii">
              -1.000000e+00    -1.000000e+00    -1.000000e+00
              -4.472136e-01    -1.000000e+00    -1.000000e+00
               4.472136e-01    -1.000000e+00    -1.000000e+00
               1.000000e+00    -1.000000e+00    -1.000000e+00
              -1.000000e+00    -4.472136e-01    -1.000000e+00
              -4.472136e-01    -4.472136e-01    -1.000000e+00
               4.472136e-01    -4.472136e-01    -1.000000e+00
               1.000000e+00    -4.472136e-01    -1.000000e+00
              -1.000000e+00     4.472136e-01    -1.000000e+00
              -4.472136e-01     4.472136e-01    -1.000000e+00
               4.472136e-01     4.472136e-01    -1.000000e+00
               1.000000e+00     4.472136e-01    -1.000000e+00
              -1.000000e+00     1.000000e+00    -1.000000e+00
              -4.472136e-01     1.000000e+00    -1.000000e+00
               4.472136e-01     1.000000e+00    -1.000000e+00
               1.000000e+00     1.000000e+00    -1.000000e+00
              -1.000000e+00    -1.000000e+00    -4.472136e-01
              -4.472136e-01    -1.000000e+00    -4.472136e-01
               4.472136e-01    -1.000000e+00    -4.472136e-01
               1.000000e+00    -1.000000e+00    -4.472136e-01
              -1.000000e+00    -4.472136e-01    -4.472136e-01
              -4.472136e-01    -4.472136e-01    -4.472136e-01
               4.472136e-01    -4.472136e-01    -4.472136e-01
               1.000000e+00    -4.472136e-01    -4.472136e-01
              -1.000000e+00     4.472136e-01    -4.472136e-01
              -4.472136e-01     4.472136e-01    -4.472136e-01
               4.472136e-01     4.472136e-01    -4.472136e-01
               1.000000e+00     4.472136e-01    -4.472136e-01
              -1.000000e+00     1.000000e+00    -4.472136e-01
              -4.472136e-01     1.000000e+00    -4.472136e-01
               4.472136e-01     1.000000e+00    -4.472136e-01
               1.000000e+00     1.000000e+00    -4.472136e-01
              -1.000000e+00    -1.000000e+00     4.472136e-01
              -4.472136e-01    -1.000000e+00     4.472136e-01
               4.472136e-01    -1.000000e+00     4.472136e-01
               1.000000e+00    -1.000000e+00     4.472136e-01
              -1.000000e+00    -4.472136e-01     4.472136e-01
              -4.472136e-01    -4.472136e-01     4.472136e-01
               4.472136e-01    -4.472136e-01     4.472136e-01
               1.000000e+00    -4.472136e-01     4.472136e-01
              -1.000000e+00     4.472136e-01     4.472136e-01
              -4.472136e-01     4.472136e-01     4.472136e-01
               4.472136e-01     4.472136e-01     4.472136e-01
               1.000000e+00     4.472136e-01     4.472136e-01
              -1.000000e+00     1.000000e+00     4.472136e-01
              -4.472136e-01     1.000000e+00     4.472136e-01
               4.472136e-01     1.000000e+00     4.472136e-01
               1.000000e+00     1.000000e+00     4.472136e-01
              -1.000000e+00    -1.000000e+00     1.000000e+00
              -4.472136e-01    -1.000000e+00     1.000000e+00
               4.472136e-01    -1.000000e+00     1.000000e+00
               1.000000e+00    -1.000000e+00     1.000000e+00
              -1.000000e+00    -4.472136e-01     1.000000e+00
              -4.472136e-01    -4.472136e-01     1.000000e+00
               4.472136e-01    -4.472136e-01     1.000000e+00
               1.000000e+00    -4.472136e-01     1.000000e+00
              -1.000000e+00     4.472136e-01     1.000000e+00
              -4.472136e-01     4.472136e-01     1.000000e+00
               4.472136e-01     4.472136e-01     1.000000e+00
               1.000000e+00     4.472136e-01     1.000000e+00
              -1.000000e+00     1.000000e+00     1.000000e+00
              -4.472136e-01     1.000000e+00     1.000000e+00
               4.472136e-01     1.000000e+00     1.000000e+00
               1.000000e+00     1.000000e+00     1.000000e+00
        </DataArray>
      </Points>
      <Cells>
        <DataArray type="Int64" Name="connectivity" format="ascii">
           0 3 15 12 48 51 63 60
           1 2
           7 11
           13 14
           4 8
           49 50
           55 59
           61 62
           52 56
           16 32
           19 35
           28 44
           31 47
           20 24 36 40
           23 27 39 43
           17 18 33 34
           29 30 45 46
           5 6 9 10
           53 54 57 58
           21 22 25 26 37 38 41 42
        </DataArray>
        <DataArray type="Int64" Name="offsets" format="ascii">
           64
        </DataArray>
        <DataArray type="UInt8" Name="types" format="ascii">
           72
        </DataArray>
      </Cells>
    </Piece>
  </UnstructuredGrid>
</VTKFile>
