<?xml version="1.0"?>
<VTKFile type="UnstructuredGrid" version="1.0" byte_order="LittleEndian" header_type="UInt64">
  <UnstructuredGrid>
    <Piece NumberOfPoints="260" NumberOfCells="4">
      <PointData>
        <DataArray type="Float32" Name="data" format="ascii">
               0.000000e+00
               0.000000e+00
               0.000000e+00
               0.000000e+00
               1.154118e+00
               5.665125e-01
               3.808695e-01
               5.987242e-01
               1.692821e+00
               8.043782e-01
               3.695262e-01
               4.606992e-01
               1.001221e+00
               4.973500e-01
               4.083657e-01
               7.228460e-01
               1.148997e+00
               5.663771e-01
               3.808696e-01
               5.987242e-01
               1.157235e+00
               5.665953e-01
               3.808694e-01
               5.987242e-01
               1.694827e+00
               8.044477e-01
               3.695262e-01
               4.606992e-01
               1.000015e+00
               4.973228e-01
               4.083657e-01
               7.228460e-01
               1.145839e+00
               5.662942e-01
               3.808696e-01
               5.987243e-01
               1.157235e+00
               5.665953e-01
               3.808694e-01
               5.987242e-01
               1.694827e+00
               8.044477e-01
               3.695262e-01
               4.606992e-01
               1.000015e+00
               4.973228e-01
               4.083657e-01
               7.228460e-01
               1.145839e+00
               5.662942e-01
               3.808696e-01
               5.987243e-01
               1.154118e+00
               5.665125e-01
               3.808695e-01
               5.987242e-01
               1.692821e+00
               8.043782e-01
               3.695262e-01
               4.606992e-01
               1.001221e+00
               4.973500e-01
               4.083657e-01
               7.228460e-01
               1.148997e+00
               5.663771e-01
               3.808696e-01
               5.987242e-01
               1.805535e+00
               2.402897e+00
               2.165775e+00
               1.154118e+00
               1.331060e+00
               1.661840e+00
               2.640200e+00
               1.692821e+00
               2.135767e+00
               2.607272e+00
               1.997888e+00
               1.001221e+00
               2.663079e+00
               2.709901e+00
               2.110520e+00
               1.148997e+00
               1.197550e+00
               2.156833e+00
               2.197039e+00
               1.157235e+00
               1.565269e+00
               1.652757e+00
               2.647314e+00
               1.694827e+00
               2.618407e+00
               2.710028e+00
               1.980386e+00
               1.000015e+00
               2.636419e+00
               2.657645e+00
               2.074143e+00
               1.145839e+00
               1.197550e+00
               2.156833e+00
               2.197039e+00
               1.157235e+00
               1.565269e+00
               1.652757e+00
               2.647314e+00
               1.694827e+00
               2.618407e+00
               2.710028e+00
               1.980386e+00
               1.000015e+00
               2.636419e+00
               2.657645e+00
               2.074143e+00
               1.145839e+00
               1.805535e+00
               2.402897e+00
               2.165775e+00
               1.154118e+00
               1.331060e+00
               1.661840e+00
               2.640200e+00
               1.692821e+00
               2.135767e+00
               2.607272e+00
               1.997888e+00
               1.001221e+00
               2.663079e+00
               2.709901e+00
               2.110520e+00
               1.148997e+00
               1.154118e+00
               2.165775e+00
               2.402897e+00
               1.805535e+00
               1.003144e+00
               2.022504e+00
               2.410204e+00
               1.331060e+00
               1.689471e+00
               2.625552e+00
               2.156858e+00
               2.135767e+00
               1.148997e+00
               2.110520e+00
               2.709901e+00
               2.663079e+00
               1.157235e+00
               2.197039e+00
               2.156833e+00
               1.197550e+00
               1.004297e+00
               2.035147e+00
               2.406607e+00
               1.565269e+00
               1.687371e+00
               2.614517e+00
               2.505769e+00
               2.618407e+00
               1.145839e+00
               2.074143e+00
               2.657645e+00
               2.636419e+00
               1.157235e+00
               2.197039e+00
               2.156833e+00
               1.197550e+00
               1.004297e+00
               2.035147e+00
               2.406607e+00
               1.565269e+00
               1.687371e+00
               2.614517e+00
               2.505769e+00
               2.618407e+00
               1.145839e+00
               2.074143e+00
               2.657645e+00
               2.636419e+00
               1.154118e+00
               2.165775e+00
               2.402897e+00
               1.805535e+00
               1.003144e+00
               2.022504e+00
               2.410204e+00
               1.331060e+00
               1.689471e+00
               2.625552e+00
               2.156858e+00
               2.135767e+00
               1.148997e+00
               2.110520e+00
               2.709901e+00
               2.663079e+00
               5.987242e-01
               3.808695e-01
               5.665125e-01
               1.154118e+00
               7.228460e-01
               4.083656e-01
               4.973942e-01
               1.003144e+00
               4.606992e-01
               3.695262e-01
               8.042646e-01
               1.689471e+00
               5.987242e-01
               3.808696e-01
               5.663771e-01
               1.148997e+00
               5.987242e-01
               3.808694e-01
               5.665953e-01
               1.157235e+00
               7.228460e-01
               4.083656e-01
               4.974213e-01
               1.004297e+00
               4.606992e-01
               3.695262e-01
               8.041948e-01
               1.687371e+00
               5.987243e-01
               3.808696e-01
               5.662942e-01
               1.145839e+00
               5.987242e-01
               3.808694e-01
               5.665953e-01
               1.157235e+00
               7.228460e-01
               4.083656e-01
               4.974213e-01
               1.004297e+00
               4.606992e-01
               3.695262e-01
               8.041948e-01
               1.687371e+00
               5.987243e-01
               3.808696e-01
               5.662942e-01
               1.145839e+00
               5.987242e-01
               3.808695e-01
               5.665125e-01
               1.154118e+00
               7.228460e-01
               4.083656e-01
               4.973942e-01
               1.003144e+00
               4.606992e-01
               3.695262e-01
               8.042646e-01
               1.689471e+00
               5.987242e-01
               3.808696e-01
               5.663771e-01
               1.148997e+00
        </DataArray>
      </PointData>
      <CellData>
      </CellData>
      <Points>
        <DataArray type="Float32" Name="Points" NumberOfComponents="3" format="ascii">
              -1.000000e+00     0.000000e+00     0.000000e+00
              -4.472136e-01     0.000000e+00     0.000000e+00
               4.472136e-01     0.000000e+00     0.000000e+00
               1.000000e+00     0.000000e+00     0.000000e+00
               2.000000e+00    -9.932621e-01    -1.000000e+00
               2.552786e+00    -9.994561e-01    -8.027438e-01
               3.447214e+00    -9.999975e-01    -1.197256e+00
               4.000000e+00    -1.000000e+00    -1.000000e+00
               1.802744e+00    -4.404756e-01    -1.000000e+00
               2.355530e+00    -4.466697e-01    -8.027438e-01
               3.249957e+00    -4.472111e-01    -1.197256e+00
               3.802744e+00    -4.472136e-01    -1.000000e+00
               2.197256e+00     4.539515e-01    -1.000000e+00
               2.750043e+00     4.477575e-01    -8.027438e-01
               3.644470e+00     4.472161e-01    -1.197256e+00
               4.197256e+00     4.472136e-01    -1.000000e+00
               2.000000e+00     1.006738e+00    -1.000000e+00
               2.552786e+00     1.000544e+00    -8.027438e-01
               3.447214e+00     1.000003e+00    -1.197256e+00
               4.000000e+00     1.000000e+00    -1.000000e+00
               2.000000e+00    -9.850044e-01    -4.472136e-01
               2.552786e+00    -9.987895e-01    -2.499574e-01
               3.447214e+00    -9.999943e-01    -6.444698e-01
               4.000000e+00    -9.999999e-01    -4.472136e-01
               1.802744e+00    -4.322180e-01    -4.472136e-01
               2.355530e+00    -4.460031e-01    -2.499574e-01
               3.249957e+00    -4.472079e-01    -6.444698e-01
               3.802744e+00    -4.472135e-01    -4.472136e-01
               2.197256e+00     4.622092e-01    -4.472136e-01
               2.750043e+00     4.484241e-01    -2.499574e-01
               3.644470e+00     4.472192e-01    -6.444698e-01
               4.197256e+00     4.472137e-01    -4.472136e-01
               2.000000e+00     1.014996e+00    -4.472136e-01
               2.552786e+00     1.001211e+00    -2.499574e-01
               3.447214e+00     1.000006e+00    -6.444698e-01
               4.000000e+00     1.000000e+00    -4.472136e-01
               2.000000e+00    -9.850044e-01     4.472136e-01
               2.552786e+00    -9.987895e-01     6.444698e-01
               3.447214e+00    -9.999943e-01     2.499574e-01
               4.000000e+00    -9.999999e-01     4.472136e-01
               1.802744e+00    -4.322180e-01     4.472136e-01
               2.355530e+00    -4.460031e-01     6.444698e-01
               3.249957e+00    -4.472079e-01     2.499574e-01
               3.802744e+00    -4.472135e-01     4.472136e-01
               2.197256e+00     4.622092e-01     4.472136e-01
               2.750043e+00     4.484241e-01     6.444698e-01
               3.644470e+00     4.472192e-01     2.499574e-01
               4.197256e+00     4.472137e-01     4.472136e-01
               2.000000e+00     1.014996e+00     4.472136e-01
               2.552786e+00     1.001211e+00     6.444698e-01
               3.447214e+00     1.000006e+00     2.499574e-01
               4.000000e+00     1.000000e+00     4.472136e-01
               2.000000e+00    -9.932621e-01     1.000000e+00
               2.552786e+00    -9.994561e-01     1.197256e+00
               3.447214e+00    -9.999975e-01     8.027438e-01
               4.000000e+00    -1.000000e+00     1.000000e+00
               1.802744e+00    -4.404756e-01     1.000000e+00
               2.355530e+00    -4.466697e-01     1.197256e+00
               3.249957e+00    -4.472111e-01     8.027438e-01
               3.802744e+00    -4.472136e-01     1.000000e+00
               2.197256e+00     4.539515e-01     1.000000e+00
               2.750043e+00     4.477575e-01     1.197256e+00
               3.644470e+00     4.472161e-01     8.027438e-01
               4.197256e+00     4.472136e-01     1.000000e+00
               2.000000e+00     1.006738e+00     1.000000e+00
               2.552786e+00     1.000544e+00     1.197256e+00
               3.447214e+00     1.000003e+00     8.027438e-01
               4.000000e+00     1.000000e+00     1.000000e+00
              -2.449294e-17    -6.321206e-01    -1.000000e+00
               5.527864e-01    -7.289828e-01    -8.027438e-01
               1.447214e+00    -9.546990e-01    -1.197256e+00
               2.000000e+00    -9.932621e-01    -1.000000e+00
              -1.972562e-01    -7.933415e-02    -1.000000e+00
               3.555302e-01    -1.761963e-01    -8.027438e-01
               1.249957e+00    -4.019126e-01    -1.197256e+00
               1.802744e+00    -4.404756e-01    -1.000000e+00
               1.972562e-01     8.150930e-01    -1.000000e+00
               7.500426e-01     7.182308e-01    -8.027438e-01
               1.644470e+00     4.925145e-01    -1.197256e+00
               2.197256e+00     4.539515e-01    -1.000000e+00
               1.133108e-16     1.367879e+00    -1.000000e+00
               5.527864e-01     1.271017e+00    -8.027438e-01
               1.447214e+00     1.045301e+00    -1.197256e+00
               2.000000e+00     1.006738e+00    -1.000000e+00
              -2.449294e-17    -1.812692e-01    -4.472136e-01
               5.527864e-01    -3.968400e-01    -2.499574e-01
               1.447214e+00    -8.991809e-01    -6.444698e-01
               2.000000e+00    -9.850044e-01    -4.472136e-01
              -1.972562e-01     3.715172e-01    -4.472136e-01
               3.555302e-01     1.559464e-01    -2.499574e-01
               1.249957e+00    -3.463945e-01    -6.444698e-01
               1.802744e+00    -4.322180e-01    -4.472136e-01
               1.972562e-01     1.265944e+00    -4.472136e-01
               7.500426e-01     1.050374e+00    -2.499574e-01
               1.644470e+00     5.480327e-01    -6.444698e-01
               2.197256e+00     4.622092e-01    -4.472136e-01
               1.133108e-16     1.818731e+00    -4.472136e-01
               5.527864e-01     1.603160e+00    -2.499574e-01
               1.447214e+00     1.100819e+00    -6.444698e-01
               2.000000e+00     1.014996e+00    -4.472136e-01
              -2.449294e-17    -1.812692e-01     4.472136e-01
               5.527864e-01    -3.968400e-01     6.444698e-01
               1.447214e+00    -8.991809e-01     2.499574e-01
               2.000000e+00    -9.850044e-01     4.472136e-01
              -1.972562e-01     3.715172e-01     4.472136e-01
               3.555302e-01     1.559464e-01     6.444698e-01
               1.249957e+00    -3.463945e-01     2.499574e-01
               1.802744e+00    -4.322180e-01     4.472136e-01
               1.972562e-01     1.265944e+00     4.472136e-01
               7.500426e-01     1.050374e+00     6.444698e-01
               1.644470e+00     5.480327e-01     2.499574e-01
               2.197256e+00     4.622092e-01     4.472136e-01
               1.133108e-16     1.818731e+00     4.472136e-01
               5.527864e-01     1.603160e+00     6.444698e-01
               1.447214e+00     1.100819e+00     2.499574e-01
               2.000000e+00     1.014996e+00     4.472136e-01
              -2.449294e-17    -6.321206e-01     1.000000e+00
               5.527864e-01    -7.289828e-01     1.197256e+00
               1.447214e+00    -9.546990e-01     8.027438e-01
               2.000000e+00    -9.932621e-01     1.000000e+00
              -1.972562e-01    -7.933415e-02     1.000000e+00
               3.555302e-01    -1.761963e-01     1.197256e+00
               1.249957e+00    -4.019126e-01     8.027438e-01
               1.802744e+00    -4.404756e-01     1.000000e+00
               1.972562e-01     8.150930e-01     1.000000e+00
               7.500426e-01     7.182308e-01     1.197256e+00
               1.644470e+00     4.925145e-01     8.027438e-01
               2.197256e+00     4.539515e-01     1.000000e+00
               1.133108e-16     1.367879e+00     1.000000e+00
               5.527864e-01     1.271017e+00     1.197256e+00
               1.447214e+00     1.045301e+00     8.027438e-01
               2.000000e+00     1.006738e+00     1.000000e+00
              -2.000000e+00    -9.932621e-01    -1.000000e+00
              -1.447214e+00    -9.546990e-01    -8.027438e-01
              -5.527864e-01    -7.289828e-01    -1.197256e+00
              -1.355152e-16    -6.321206e-01    -1.000000e+00
              -2.197256e+00    -4.404756e-01    -1.000000e+00
              -1.644470e+00    -4.019126e-01    -8.027438e-01
              -7.500426e-01    -1.761963e-01    -1.197256e+00
              -1.972562e-01    -7.933415e-02    -1.000000e+00
              -1.802744e+00     4.539515e-01    -1.000000e+00
              -1.249957e+00     4.925145e-01    -8.027438e-01
              -3.555302e-01     7.182308e-01    -1.197256e+00
               1.972562e-01     8.150930e-01    -1.000000e+00
              -2.000000e+00     1.006738e+00    -1.000000e+00
              -1.447214e+00     1.045301e+00    -8.027438e-01
              -5.527864e-01     1.271017e+00    -1.197256e+00
               2.288475e-18     1.367879e+00    -1.000000e+00
              -2.000000e+00    -9.850044e-01    -4.472136e-01
              -1.447214e+00    -8.991809e-01    -2.499574e-01
              -5.527864e-01    -3.968400e-01    -6.444698e-01
              -1.355152e-16    -1.812692e-01    -4.472136e-01
              -2.197256e+00    -4.322180e-01    -4.472136e-01
              -1.644470e+00    -3.463945e-01    -2.499574e-01
              -7.500426e-01     1.559464e-01    -6.444698e-01
              -1.972562e-01     3.715172e-01    -4.472136e-01
              -1.802744e+00     4.622092e-01    -4.472136e-01
              -1.249957e+00     5.480327e-01    -2.499574e-01
              -3.555302e-01     1.050374e+00    -6.444698e-01
               1.972562e-01     1.265944e+00    -4.472136e-01
              -2.000000e+00     1.014996e+00    -4.472136e-01
              -1.447214e+00     1.100819e+00    -2.499574e-01
              -5.527864e-01     1.603160e+00    -6.444698e-01
               2.288475e-18     1.818731e+00    -4.472136e-01
              -2.000000e+00    -9.850044e-01     4.472136e-01
              -1.447214e+00    -8.991809e-01     6.444698e-01
              -5.527864e-01    -3.968400e-01     2.499574e-01
              -1.355152e-16    -1.812692e-01     4.472136e-01
              -2.197256e+00    -4.322180e-01     4.472136e-01
              -1.644470e+00    -3.463945e-01     6.444698e-01
              -7.500426e-01     1.559464e-01     2.499574e-01
              -1.972562e-01     3.715172e-01     4.472136e-01
              -1.802744e+00     4.622092e-01     4.472136e-01
              -1.249957e+00     5.480327e-01     6.444698e-01
              -3.555302e-01     1.050374e+00     2.499574e-01
               1.972562e-01     1.265944e+00     4.472136e-01
              -2.000000e+00     1.014996e+00     4.472136e-01
              -1.447214e+00     1.100819e+00     6.444698e-01
              -5.527864e-01     1.603160e+00     2.499574e-01
               2.288475e-18     1.818731e+00     4.472136e-01
              -2.000000e+00    -9.932621e-01     1.000000e+00
              -1.447214e+00    -9.546990e-01     1.197256e+00
              -5.527864e-01    -7.289828e-01     8.027438e-01
              -1.355152e-16    -6.321206e-01     1.000000e+00
              -2.197256e+00    -4.404756e-01     1.000000e+00
              -1.644470e+00    -4.019126e-01     1.197256e+00
              -7.500426e-01    -1.761963e-01     8.027438e-01
              -1.972562e-01    -7.933415e-02     1.000000e+00
              -1.802744e+00     4.539515e-01     1.000000e+00
              -1.249957e+00     4.925145e-01     1.197256e+00
              -3.555302e-01     7.182308e-01     8.027438e-01
               1.972562e-01     8.150930e-01     1.000000e+00
              -2.000000e+00     1.006738e+00     1.000000e+00
              -1.447214e+00     1.045301e+00     1.197256e+00
              -5.527864e-01     1.271017e+00     8.027438e-01
               2.288475e-18     1.367879e+00     1.000000e+00
              -4.000000e+00    -1.000000e+00    -1.000000e+00
              -3.447214e+00    -9.999975e-01    -8.027438e-01
              -2.552786e+00    -9.994561e-01    -1.197256e+00
              -2.000000e+00    -9.932621e-01    -1.000000e+00
              -4.197256e+00    -4.472136e-01    -1.000000e+00
              -3.644470e+00    -4.472111e-01    -8.027438e-01
              -2.750043e+00    -4.466697e-01    -1.197256e+00
              -2.197256e+00    -4.404756e-01    -1.000000e+00
              -3.802744e+00     4.472136e-01    -1.000000e+00
              -3.249957e+00     4.472161e-01    -8.027438e-01
              -2.355530e+00     4.477575e-01    -1.197256e+00
              -1.802744e+00     4.539515e-01    -1.000000e+00
              -4.000000e+00     1.000000e+00    -1.000000e+00
              -3.447214e+00     1.000003e+00    -8.027438e-01
              -2.552786e+00     1.000544e+00    -1.197256e+00
              -2.000000e+00     1.006738e+00    -1.000000e+00
              -4.000000e+00    -9.999999e-01    -4.472136e-01
              -3.447214e+00    -9.999943e-01    -2.499574e-01
              -2.552786e+00    -9.987895e-01    -6.444698e-01
              -2.000000e+00    -9.850044e-01    -4.472136e-01
              -4.197256e+00    -4.472135e-01    -4.472136e-01
              -3.644470e+00    -4.472079e-01    -2.499574e-01
              -2.750043e+00    -4.460031e-01    -6.444698e-01
              -2.197256e+00    -4.322180e-01    -4.472136e-01
              -3.802744e+00     4.472137e-01    -4.472136e-01
              -3.249957e+00     4.472192e-01    -2.499574e-01
              -2.355530e+00     4.484241e-01    -6.444698e-01
              -1.802744e+00     4.622092e-01    -4.472136e-01
              -4.000000e+00     1.000000e+00    -4.472136e-01
              -3.447214e+00     1.000006e+00    -2.499574e-01
              -2.552786e+00     1.001211e+00    -6.444698e-01
              -2.000000e+00     1.014996e+00    -4.472136e-01
              -4.000000e+00    -9.999999e-01     4.472136e-01
              -3.447214e+00    -9.999943e-01     6.444698e-01
              -2.552786e+00    -9.987895e-01     2.499574e-01
              -2.000000e+00    -9.850044e-01     4.472136e-01
              -4.197256e+00    -4.472135e-01     4.472136e-01
              -3.644470e+00    -4.472079e-01     6.444698e-01
              -2.750043e+00    -4.460031e-01     2.499574e-01
              -2.197256e+00    -4.322180e-01     4.472136e-01
              -3.802744e+00     4.472137e-01     4.472136e-01
              -3.249957e+00     4.472192e-01     6.444698e-01
              -2.355530e+00     4.484241e-01     2.499574e-01
              -1.802744e+00     4.622092e-01     4.472136e-01
              -4.000000e+00     1.000000e+00     4.472136e-01
              -3.447214e+00     1.000006e+00     6.444698e-01
              -2.552786e+00     1.001211e+00     2.499574e-01
              -2.000000e+00     1.014996e+00     4.472136e-01
              -4.000000e+00    -1.000000e+00     1.000000e+00
              -3.447214e+00    -9.999975e-01     1.197256e+00
              -2.552786e+00    -9.994561e-01     8.027438e-01
              -2.000000e+00    -9.932621e-01     1.000000e+00
              -4.197256e+00    -4.472136e-01     1.000000e+00
              -3.644470e+00    -4.472111e-01     1.197256e+00
              -2.750043e+00    -4.466697e-01     8.027438e-01
              -2.197256e+00    -4.404756e-01     1.000000e+00
              -3.802744e+00     4.472136e-01     1.000000e+00
              -3.249957e+00     4.472161e-01     1.197256e+00
              -2.355530e+00     4.477575e-01     8.027438e-01
              -1.802744e+00     4.539515e-01     1.000000e+00
              -4.000000e+00     1.000000e+00     1.000000e+00
              -3.447214e+00     1.000003e+00     1.197256e+00
              -2.552786e+00     1.000544e+00     8.027438e-01
              -2.000000e+00     1.006738e+00     1.000000e+00
        </DataArray>
      </Points>
      <Cells>
        <DataArray type="Int64" Name="connectivity" format="ascii">
           4 7 19 16 52 55 67 64
           5 6
           11 15
           17 18
           8 12
           53 54
           59 63
           65 66
           56 60
           20 36
           23 39
           32 48
           35 51
           24 28 40 44
           27 31 43 47
           21 22 37 38
           33 34 49 50
           9 10 13 14
           57 58 61 62
           25 26 29 30 41 42 45 46
           0 1 2 3
           68 71 83 80 116 119 131 128
           69 70
           75 79
           81 82
           72 76
           117 118
           123 127
           129 130
           120 124
           84 100
           87 103
           96 112
           99 115
           88 92 104 108
           91 95 107 111
           85 86 101 102
           97 98 113 114
           73 74 77 78
           121 122 125 126
           89 90 93 94 105 106 109 110
           0 1 2 3
           132 135 147 144 180 183 195 192
           133 134
           139 143
           145 146
           136 140
           181 182
           187 191
           193 194
           184 188
           148 164
           151 167
           160 176
           163 179
           152 156 168 172
           155 159 171 175
           149 150 165 166
           161 162 177 178
           137 138 141 142
           185 186 189 190
           153 154 157 158 169 170 173 174
           0 1 2 3
           196 199 211 208 244 247 259 256
           197 198
           203 207
           209 210
           200 204
           245 246
           251 255
           257 258
           248 252
           212 228
           215 231
           224 240
           227 243
           216 220 232 236
           219 223 235 239
           213 214 229 230
           225 226 241 242
           201 202 205 206
           249 250 253 254
           217 218 221 222 233 234 237 238
           0 1 2 3
        </DataArray>
        <DataArray type="Int64" Name="offsets" format="ascii">
           68
           136
           204
           272
        </DataArray>
        <DataArray type="UInt8" Name="types" format="ascii">
           76
           76
           76
           76
        </DataArray>
      </Cells>
    </Piece>
  </UnstructuredGrid>
</VTKFile>
